<?xml version="1.0"?>
<VTKFile type="UnstructuredGrid" version="0.1" byte_order="BigEndian">
<UnstructuredGrid GhostLevel="0">
<Piece NumberOfPoints="20728" NumberOfCells="12921" ><Points>
<DataArray type="Float32" NumberOfComponents="3" format="ascii">
0	10000	150	0	9750	150	250	10000	150	250	9750	150	0	10000	70	0	9750	70	250	10000	70	250	9750	70	500	10000	150	500	9750	150	500	10000	70	500	9750	70	750	10000	150	750	9750	150	750	10000	70	750	9750	70	1000	10000	150	1000	9750	150	1000	10000	70	1000	9750	70	1250	10000	150	1250	9750	150	1250	10000	70	1250	9750	70	1500	10000	150	1500	9750	150	1500	10000	70	1500	9750	70	1750	10000	150	1750	9750	150	1750	10000	70	1750	9750	70	2000	10000	150	2000	9750	150	2000	10000	70	2000	9750	70	2250	10000	150	2250	9750	150	2250	10000	70	2250	9750	70	2500	10000	150	2500	9750	150	2500	10000	70	2500	9750	70	2750	10000	150	2750	9750	150	2750	10000	70	2750	9750	70	3000	10000	150	3000	9750	150	3000	10000	70	3000	9750	70	3250	10000	150	3250	9750	150	3250	10000	70	3250	9750	70	3500	10000	150	3500	9750	150	3500	10000	70	3500	9750	70	3750	10000	150	3750	9750	150	3750	10000	70	3750	9750	70	4000	10000	150	4000	9750	150	4000	10000	70	4000	9750	70	4250	10000	150	4250	9750	150	4250	10000	70	4250	9750	70	4500	10000	150	4500	9750	150	4500	10000	70	4500	9750	70	4750	10000	150	4750	9750	150	4750	10000	70	4750	9750	70	5000	10000	150	5000	9750	150	5000	10000	70	5000	9750	70	5250	10000	150	5250	9750	150	5250	10000	70	5250	9750	70	5500	10000	150	5500	9750	150	5500	10000	70	5500	9750	70	5750	10000	150	5750	9750	150	5750	10000	70	5750	9750	70	6000	10000	150	6000	9750	150	6000	10000	70	6000	9750	70	6250	10000	150	6250	9750	150	6250	10000	70	6250	9750	70	6500	10000	150	6500	9750	150	6500	10000	70	6500	9750	70	6750	10000	150	6750	9750	150	6750	10000	70	6750	9750	70	7000	10000	150	7000	9750	150	7000	10000	70	7000	9750	70	7250	10000	150	7250	9750	150	7250	10000	70	7250	9750	70	7500	10000	150	7500	9750	150	7500	10000	70	7500	9750	70	7750	10000	150	7750	9750	150	7750	10000	70	7750	9750	70	8000	10000	150	8000	9750	150	8000	10000	70	8000	9750	70	8250	10000	150	8250	9750	150	8250	10000	70	8250	9750	70	8500	10000	150	8500	9750	150	8500	10000	70	8500	9750	70	8750	10000	150	8750	9750	150	8750	10000	70	8750	9750	70	9000	10000	150	9000	9750	150	9000	10000	70	9000	9750	70	9250	10000	150	9250	9750	150	9250	10000	70	9250	9750	70	0	9500	150	250	9500	150	0	9500	70	250	9500	70	500	9500	150	500	9500	70	750	9500	150	750	9500	70	1000	9500	150	1000	9500	70	1250	9500	150	1250	9500	70	1500	9500	150	1500	9500	70	1750	9500	150	1750	9500	70	2000	9500	150	2000	9500	70	2250	9500	150	2250	9500	70	2500	9500	150	2500	9500	70	2750	9500	150	2750	9500	70	3000	9500	150	3000	9500	70	3250	9500	150	3250	9500	70	3500	9500	150	3500	9500	70	3750	9500	150	3750	9500	70	4000	9500	150	4000	9500	70	4250	9500	150	4250	9500	70	4500	9500	150	4500	9500	70	4750	9500	150	4750	9500	70	5000	9500	150	5000	9500	70	5250	9500	150	5250	9500	70	5500	9500	150	5500	9500	70	5750	9500	150	5750	9500	70	6000	9500	150	6000	9500	70	6250	9500	150	6250	9500	70	6500	9500	150	6500	9500	70	6750	9500	150	6750	9500	70	7000	9500	150	7000	9500	70	7250	9500	150	7250	9500	70	7500	9500	150	7500	9500	70	7750	9500	150	7750	9500	70	8000	9500	150	8000	9500	70	8250	9500	150	8250	9500	70	8500	9500	150	8500	9500	70	8750	9500	150	8750	9500	70	9000	9500	150	9000	9500	70	9250	9500	150	9250	9500	70	0	9250	150	250	9250	150	0	9250	70	250	9250	70	500	9250	150	500	9250	70	750	9250	150	750	9250	70	1000	9250	150	1000	9250	70	1250	9250	150	1250	9250	70	1500	9250	150	1500	9250	70	1750	9250	150	1750	9250	70	2000	9250	150	2000	9250	70	2250	9250	150	2250	9250	70	2500	9250	150	2500	9250	70	2750	9250	150	2750	9250	70	3000	9250	150	3000	9250	70	3250	9250	150	3250	9250	70	3500	9250	150	3500	9250	70	3750	9250	150	3750	9250	70	4000	9250	150	4000	9250	70	4250	9250	150	4250	9250	70	4500	9250	150	4500	9250	70	4750	9250	150	4750	9250	70	5000	9250	150	5000	9250	70	5250	9250	150	5250	9250	70	5500	9250	150	5500	9250	70	5750	9250	150	5750	9250	70	6000	9250	150	6000	9250	70	6250	9250	150	6250	9250	70	6500	9250	150	6500	9250	70	6750	9250	150	6750	9250	70	7000	9250	150	7000	9250	70	7250	9250	150	7250	9250	70	7500	9250	150	7500	9250	70	7750	9250	150	7750	9250	70	8000	9250	150	8000	9250	70	8250	9250	150	8250	9250	70	8500	9250	150	8500	9250	70	8750	9250	150	8750	9250	70	9000	9250	150	9000	9250	70	9250	9250	150	9250	9250	70	0	9000	150	250	9000	150	0	9000	70	250	9000	70	500	9000	150	500	9000	70	750	9000	150	750	9000	70	1000	9000	150	1000	9000	70	1250	9000	150	1250	9000	70	1500	9000	150	1500	9000	70	1750	9000	150	1750	9000	70	2000	9000	150	2000	9000	70	2250	9000	150	2250	9000	70	2500	9000	150	2500	9000	70	2750	9000	150	2750	9000	70	3000	9000	150	3000	9000	70	3250	9000	150	3250	9000	70	3500	9000	150	3500	9000	70	3750	9000	150	3750	9000	70	4000	9000	150	4000	9000	70	4250	9000	150	4250	9000	70	4500	9000	150	4500	9000	70	4750	9000	150	4750	9000	70	5000	9000	150	5000	9000	70	5250	9000	150	5250	9000	70	5500	9000	150	5500	9000	70	5750	9000	150	5750	9000	70	6000	9000	150	6000	9000	70	6250	9000	150	6250	9000	70	6500	9000	150	6500	9000	70	6750	9000	150	6750	9000	70	7000	9000	150	7000	9000	70	7250	9000	150	7250	9000	70	7500	9000	150	7500	9000	70	7750	9000	150	7750	9000	70	8000	9000	150	8000	9000	70	8250	9000	150	8250	9000	70	8500	9000	150	8500	9000	70	8750	9000	150	8750	9000	70	9000	9000	150	9000	9000	70	9250	9000	150	9250	9000	70	0	8750	150	250	8750	150	0	8750	70	250	8750	70	500	8750	150	500	8750	70	750	8750	150	750	8750	70	1000	8750	150	1000	8750	70	1250	8750	150	1250	8750	70	1500	8750	150	1500	8750	70	1750	8750	150	1750	8750	70	2000	8750	150	2000	8750	70	2250	8750	150	2250	8750	70	2500	8750	150	2500	8750	70	2750	8750	150	2750	8750	70	3000	8750	150	3000	8750	70	3250	8750	150	3250	8750	70	3500	8750	150	3500	8750	70	3750	8750	150	3750	8750	70	4000	8750	150	4000	8750	70	4250	8750	150	4250	8750	70	4500	8750	150	4500	8750	70	4750	8750	150	4750	8750	70	5000	8750	150	5000	8750	70	5250	8750	150	5250	8750	70	5500	8750	150	5500	8750	70	5750	8750	150	5750	8750	70	6000	8750	150	6000	8750	70	6250	8750	150	6250	8750	70	6500	8750	150	6500	8750	70	6750	8750	150	6750	8750	70	7000	8750	150	7000	8750	70	7250	8750	150	7250	8750	70	7500	8750	150	7500	8750	70	7750	8750	150	7750	8750	70	8000	8750	150	8000	8750	70	8250	8750	150	8250	8750	70	8500	8750	150	8500	8750	70	8750	8750	150	8750	8750	70	9000	8750	150	9000	8750	70	9250	8750	150	9250	8750	70	0	8500	150	250	8500	150	0	8500	70	250	8500	70	500	8500	150	500	8500	70	750	8500	150	750	8500	70	1000	8500	150	1000	8500	70	1250	8500	150	1250	8500	70	1500	8500	150	1500	8500	70	1750	8500	150	1750	8500	70	2000	8500	150	2000	8500	70	2250	8500	150	2250	8500	70	2500	8500	150	2500	8500	70	2750	8500	150	2750	8500	70	3000	8500	150	3000	8500	70	3250	8500	150	3250	8500	70	3500	8500	150	3500	8500	70	3750	8500	150	3750	8500	70	4000	8500	150	4000	8500	70	4250	8500	150	4250	8500	70	4500	8500	150	4500	8500	70	4750	8500	150	4750	8500	70	5000	8500	150	5000	8500	70	5250	8500	150	5250	8500	70	5500	8500	150	5500	8500	70	5750	8500	150	5750	8500	70	6000	8500	150	6000	8500	70	6250	8500	150	6250	8500	70	6500	8500	150	6500	8500	70	6750	8500	150	6750	8500	70	7000	8500	150	7000	8500	70	7250	8500	150	7250	8500	70	7500	8500	150	7500	8500	70	7750	8500	150	7750	8500	70	8000	8500	150	8000	8500	70	8250	8500	150	8250	8500	70	8500	8500	150	8500	8500	70	8750	8500	150	8750	8500	70	9000	8500	150	9000	8500	70	9250	8500	150	9250	8500	70	0	8250	150	250	8250	150	0	8250	70	250	8250	70	500	8250	150	500	8250	70	750	8250	150	750	8250	70	1000	8250	150	1000	8250	70	1250	8250	150	1250	8250	70	1500	8250	150	1500	8250	70	1750	8250	150	1750	8250	70	2000	8250	150	2000	8250	70	2250	8250	150	2250	8250	70	2500	8250	150	2500	8250	70	2750	8250	150	2750	8250	70	3000	8250	150	3000	8250	70	3250	8250	150	3250	8250	70	3500	8250	150	3500	8250	70	3750	8250	150	3750	8250	70	4000	8250	150	4000	8250	70	4250	8250	150	4250	8250	70	4500	8250	150	4500	8250	70	4750	8250	150	4750	8250	70	5000	8250	150	5000	8250	70	5250	8250	150	5250	8250	70	5500	8250	150	5500	8250	70	5750	8250	150	5750	8250	70	6000	8250	150	6000	8250	70	6250	8250	150	6250	8250	70	6500	8250	150	6500	8250	70	6750	8250	150	6750	8250	70	7000	8250	150	7000	8250	70	7250	8250	150	7250	8250	70	7500	8250	150	7500	8250	70	7750	8250	150	7750	8250	70	8000	8250	150	8000	8250	70	8250	8250	150	8250	8250	70	8500	8250	150	8500	8250	70	8750	8250	150	8750	8250	70	9000	8250	150	9000	8250	70	9250	8250	150	9250	8250	70	0	8000	150	250	8000	150	0	8000	70	250	8000	70	500	8000	150	500	8000	70	750	8000	150	750	8000	70	1000	8000	150	1000	8000	70	1250	8000	150	1250	8000	70	1500	8000	150	1500	8000	70	1750	8000	150	1750	8000	70	2000	8000	150	2000	8000	70	2250	8000	150	2250	8000	70	2500	8000	150	2500	8000	70	2750	8000	150	2750	8000	70	3000	8000	150	3000	8000	70	3250	8000	150	3250	8000	70	3500	8000	150	3500	8000	70	3750	8000	150	3750	8000	70	4000	8000	150	4000	8000	70	4250	8000	150	4250	8000	70	4500	8000	150	4500	8000	70	4750	8000	150	4750	8000	70	5000	8000	150	5000	8000	70	5250	8000	150	5250	8000	70	5500	8000	150	5500	8000	70	5750	8000	150	5750	8000	70	6000	8000	150	6000	8000	70	6250	8000	150	6250	8000	70	6500	8000	150	6500	8000	70	6750	8000	150	6750	8000	70	7000	8000	150	7000	8000	70	7250	8000	150	7250	8000	70	7500	8000	150	7500	8000	70	7750	8000	150	7750	8000	70	8000	8000	150	8000	8000	70	8250	8000	150	8250	8000	70	8500	8000	150	8500	8000	70	8750	8000	150	8750	8000	70	9000	8000	150	9000	8000	70	9250	8000	150	9250	8000	70	0	7750	150	250	7750	150	0	7750	70	250	7750	70	500	7750	150	500	7750	70	750	7750	150	750	7750	70	1000	7750	150	1000	7750	70	1250	7750	150	1250	7750	70	1500	7750	150	1500	7750	70	1750	7750	150	1750	7750	70	2000	7750	150	2000	7750	70	2250	7750	150	2250	7750	70	2500	7750	150	2500	7750	70	2750	7750	150	2750	7750	70	3000	7750	150	3000	7750	70	3250	7750	150	3250	7750	70	3500	7750	150	3500	7750	70	3750	7750	150	3750	7750	70	4000	7750	150	4000	7750	70	4250	7750	150	4250	7750	70	4500	7750	150	4500	7750	70	4750	7750	150	4750	7750	70	5000	7750	150	50
[...]
<CellData Scalars="scalars">
<DataArray type="Int32" Name="nodeid" format="ascii">1	2	3	4	5	6	7	8	9	10	11	12	13	14	15	16	17	18	19	20	21	22	23	24	25	26	27	28	29	30	31	32	33	34	35	36	37	4801	4802	4804	4803	4805	4809	4813	4814	4816	4815	4817	4818	4820	4819	4811	4829	4830	4832	4831	4833	4835	4837	4838	4840	4839	4821	4822	4824	4823	4849	4851	41	42	43	44	45	46	47	48	49	50	51	52	53	54	55	56	57	58	59	60	61	62	63	64	65	66	67	68	69	70	71	72	73	74	75	76	77	4857	4858	4860	4859	4865	4866	4869	4870	4872	4871	4867	4877	4879	4881	4885	4889	4890	4892	4891	4893	4895	4887	81	82	83	84	85	86	87	88	89	90	91	92	93	94	95	96	97	98	99	100	101	102	103	104	105	106	107	108	109	110	111	112	113	114	115	116	117	4905	4909	4910	4912	4911	4913	4914	4916	4915	4907	4925	4926	4928	4927	4929	4933	4934	4936	4935	4945	4947	4949	4951	121	122	123	124	125	126	127	128	129	130	131	132	133	134	135	136	137	138	139	140	141	142	143	144	145	146	147	148	149	150	151	152	153	154	155	156	157	4957	4961	4965	4966	4968	4967	4969	4970	4972	4971	4963	4973	4977	4978	4980	4979	4981	4982	4984	4983	4975	4959	4993	161	162	163	164	165	166	167	168	169	170	171	172	173	174	175	176	177	178	179	180	181	182	183	184	185	186	187	188	189	190	191	192	193	194	195	196	197	5001	5005	5009	5010	5012	5011	5013	5014	5016	5015	5007	5017	5021	5022	5024	5023	5025	5026	5028	5027	5019	5003	201	202	203	204	205	206	207	208	209	210	211	212	213	214	215	216	217	218	219	220	221	222	223	224	225	226	227	228	229	230	231	232	233	234	235	236	237	5041	5045	5049	5050	5052	5051	5048	5047	5053	5054	5056	5055	5043	5065	5067	5069	5071	5077	5080	5079	5081	5082	5084	5083	241	242	243	244	245	246	247	248	249	250	251	252	253	254	255	256	257	258	259	260	261	262	263	264	265	266	267	268	269	270	271	272	273	274	275	276	277	5085	5089	5090	5092	5091	5088	5087	5101	5102	5104	5103	5109	5111	5105	5106	5108	5107	5117	5121	5123	5125	5128	5127	5119	281	282	283	284	285	286	287	288	289	290	291	292	293	294	295	296	297	298	299	300	301	302	303	304	305	306	307	308	309	310	311	312	313	314	315	316	317	5137	5138	5140	5139	5145	5149	5150	5152	5151	5153	5154	5156	5155	5147	5163	5173	5175	5177	5179	5165	5166	5168	5167	321	322	323	324	325	326	327	328	329	330	331	332	333	334	335	336	337	338	339	340	341	342	343	344	345	346	347	348	349	350	351	352	353	354	355	356	357	5185	5186	5188	5187	5193	5194	5196	5195	5201	5202	5204	5203	5205	5206	5208	5207	5217	5218	5220	5219	5221	5222	5224	5223	5209	5210	5212	5211	361	362	363	364	365	366	367	368	369	370	371	372	373	374	375	376	377	378	379	380	381	382	383	384	385	386	387	388	389	390	391	392	393	394	395	396	397	5229	5230	5232	5231	5237	5238	5240	5239	5245	5246	5248	5247	5249	5251	5253	5255	5243	5257	5261	5263	5265	5267	5259	5235	401	402	403	404	405	406	407	408	409	410	411	412	413	414	415	416	417	418	419	420	421	422	423	424	425	426	427	428	429	430	431	432	433	434	435	436	437	5281	5282	5284	5283	5289	5290	5292	5291	5293	5297	5299	5305	5301	5302	5304	5303	5317	5318	5320	5319	5321	5322	5324	5323	5309	5310	5312	5311	441	442	443	444	445	446	447	448	449	450	451	452	453	454	455	456	457	458	459	460	461	462	463	464	465	466	467	468	469	470	471	472	473	474	475	476	477	5333	5334	5336	5335	5341	5342	5344	5343	5349	5350	5351	5353	5355	5373	5357	5361	5362	5364	5363	5365	5366	5368	5367	5359	481	482	483	484	485	486	487	488	489	490	491	492	493	494	495	496	497	498	499	500	501	502	503	504	505	506	507	508	509	510	511	512	513	514	515	516	517	5381	5385	5386	5388	5387	5389	5390	5393	5394	5396	5395	5391	5383	5401	5405	5407	5413	5409	5410	5412	5411	5425	5426	5427	5429	521	522	523	524	525	526	527	528	529	530	531	532	533	534	535	536	537	538	539	540	541	542	543	544	545	546	547	548	549	550	551	552	553	554	555	556	5437	5438	5440	5439	5445	5446	5448	5447	5449	5453	5454	5456	5455	5461	5463	5457	5458	5460	5459	5477	5478	5480	5479	5481	5483	5465	5466	5469	5470	5472	5471	5467	561	562	563	564	565	566	567	568	569	570	571	572	573	574	575	576	577	578	579	580	581	582	583	584	585	586	587	588	589	590	591	592	593	594	595	596	5493	5497	5498	5500	5499	5501	5502	5505	5506	5508	5507	5503	5495	5513	5517	5518	5520	5519	5525	5527	5521	5522	5524	5523	5537	5538	5540	5539	5541	5543	601	602	603	604	605	5549	5550	5552	5551	5553	5554	5556	5555	5557	5558	5560	5559	609	610	611	612	613	614	615	616	617	618	619	620	621	622	623	624	625	626	627	628	629	630	631	632	633	634	635	5561	5562	5564	5563	5569	5570	5572	5571	5573	5577	5578	5580	5579	5585	5581	5582	5584	5583	5601	5602	5603	5605	5607	5589	5590	5593	5594	5596	5595	5591	641	642	643	644	5617	5618	5620	5619	5625	5626	5628	5627	5629	5630	5637	5638	5640	5639	5633	5634	5636	5635	5653	5654	5656	5655	5650	5652	5651	5641	5645	5646	5648	5647	5644	5643	5661	5662	5669	5670	5672	5671	5665	5666	5668	5667	5673	5674	5681	5682	5684	5683	5677	5678	5680	5679	5689	5690	5692	5691	5685	5686	5688	5687	5697	5698	5700	5701	5702	5704	5703	5705	5706	5708	5707	5725	5726	5728	5727	5722	5733	5734	5736	5735	5729	5730	5732	5731	5713	5714	5716	5715	5717	5718	5720	5719	5712	5711	5737	5738	5745	5746	5748	5747	5741	5742	5744	5743	5749	5750	5757	5758	5760	5759	5753	5754	5756	5755	5761	5762	5764	5763	652	653	654	655	656	657	658	659	660	661	662	663	664	665	666	667	668	669	670	671	672	673	674	675	5765	5769	5770	5772	5771	5773	5774	5777	5778	5780	5779	5775	5767	5785	5789	5790	5792	5791	5797	5799	5793	5794	5796	5795	5809	5810	5812	5811	5813	5815	681	682	683	684	685	5821	5822	5824	5823	5825	5826	5828	5827	5829	5833	5837	5838	5840	5839	5836	5835	5832	5831	5849	5850	5852	5851	5853	5854	5856	5855	5848	5847	5861	5862	5864	5863	5865	5866	5868	5867	5860	5859	5844	5843	5877	5878	5880	5879	5881	5882	5884	5883	5876	5875	5889	5890	5892	5891	5886	5897	5898	5900	5899	5893	5894	5896	5895	5901	5905	5906	5908	5907	5909	5910	5912	5911	5903	5871	5917	5918	5920	5919	5914	5916	5921	5922	5924	5923	5925	5926	5928	5927	5929	5930	5932	5931	5933	5934	5936	5935	5937	5938	5940	5939	5941	5942	5944	5943	5945	5946	5953	5954	5956	5955	5949	5950	5952	5951	5957	5958	5960	5961	5962	5964	5963	699	700	701	702	703	704	705	706	707	708	709	710	711	712	713	714	5965	5966	5968	5967	5969	5973	5977	5978	5980	5979	5981	5982	5983	5975	5993	5994	5996	5995	5997	5999	6001	6002	6004	6003	5985	5986	5988	5987	721	722	723	724	725	726	727	728	729	6017	6021	6025	6026	6028	6027	6024	6023	6020	6019	6037	6038	6040	6039	6034	6045	6046	6048	6047	6041	6042	6044	6043	6049	6050	6052	6053	6054	6056	6055	6065	6066	6068	6067	6069	6070	6072	6071	6064	6063	6057	6058	6060	6059	6077	6078	6085	6086	6088	6087	6081	6082	6084	6083	6089	6090	6097	6098	6100	6099	6093	6094	6096	6095	6109	6110	6112	6111	6105	6106	6108	6107	6102	6104	6103	6117	6118	6125	6126	6128	6127	6121	6122	6124	6123	6129	6130	6137	6138	6140	6139	6133	6134	6136	6135	6145	6146	6148	6147	6141	6142	6144	6143	6153	6154	6156	6157	6158	6160	6159	6161	6162	6164	6163	6181	6182	6184	6183	6185	6186	6188	6187	6180	6179	6169	6170	6172	6171	6173	6174	6176	6175	6168	6167	6193	6194	6196	6195	6197	6198	6200	6199	6217	6218	6220	6219	6221	6222	6224	6223	6216	6215	6205	6206	6208	6207	6209	6210	6212	6211	6204	6203	6229	6230	6233	6234	6236	6235	6231	6237	6238	6245	6246	6248	6247	6241	6242	6244	6243	6261	6262	6264	6263	6253	6254	6256	6255	6257	6258	6260	6259	6252	6251	6269	6273	6274	6276	6275	6281	6282	6284	6283	6277	6278	6280	6279	6289	6290	6292	6291	6293	6294	6296	6295	6288	6287	6268	6297	6298	6300	6299	6309	6310	6312	6311	6306	6317	6318	6320	6319	6313	6314	6316	6315	6321	6322	6324	6325	6326	6328	6327	6337	6338	6340	6339	6341	6342	6344	6343	6345	6346	6348	6347	6335	6329	6330	6332	6331	6349	6350	6352	6353	6354	6356	6357	6358	6360	6359	6361	6362	6364	6363	6365	6366	6368	6367	742	743	744	6369	6370	6373	6374	6376	6375	6371	6377	6378	6380	6381	6382	6384	6383	747	748	749	750	751	752	753	754	6385	6386	6388	6387	6393	6394	6396	6395	6401	6402	6403	6405	6407	6425	6409	6413	6414	6416	6415	6417	6418	6420	6419	6411	761	762	763	764	765	766	767	768	769	770	6433	6434	6436	6435	6437	6438	6440	6439	6441	6442	6444	6443	6445	6446	6448	6447	6449	6450	6452	6451	6453	6454	6456	6455	6457	6458	6460	6459	6461	6465	6466	6468	6467	6464	6463	6477	6478	6480	6479	6481	6482	6484	6483	6485	6486	6488	6487	6475	6489	6490	6492	6493	6494	6496	6495	6505	6506	6508	6507	6509	6510	6512	6511	6513	6514	6516	6515	6503	6497	6498	6500	6499	6521	6522	6525	6526	6528	6527	6523	6529	6530	6537	6538	6540	6539	6533	6534	6536	6535	6553	6554	6556	6555	6545	6546	6548	6547	6549	6550	6552	6551	6544	6543	6561	6562	6569	6570	6572	6571	6565	6566	6568	6567	6573	6574	6576	6577	6578	6580	6579	6589	6590	6592	6591	6593	6594	6596	6595	6597	6598	6600	6599	6587	6581	6582	6584	6583	6601	6602	6617	6618	6620	6619	6605	6606	6613	6614	6616	6615	6609	6610	6612	6611	6621	6622	6624	6623	6625	6626	6628	6627	6633	6634	6637	6638	6640	6639	6635	6645	6646	6648	6647	6649	6650	6652	6651	6644	6653	6654	6656	6655	6669	6670	6672	6671	6657	6661	6662	6664	6663	6665	6666	6668	6667	6659	6681	6682	6684	6683	6685	6686	6688	6687	6689	6690	6692	6691	6679	6693	6694	6696	6697	6698	6700	6699	6709	6710	6712	6711	6706	6708	6713	6714	6716	6715	6701	6702	6704	6703	6717	6718	6720	6719	6721	6722	6729	6730	6737	6738	6740	6739	6733	6734	6736	6735	6725	6726	6728	6727	6741	6742	6757	6758	6760	6759	6745	6746	6753	6754	6756	6755	6749	6750	6752	6751	6761	6762	6764	6763	6765	6766	6773	6774	6776	6775	6769	6770	6772	6771	6777	6778	6785	6786	6788	6787	6781	6782	6784	6783	6789	6790	6792	6793	6794	6796	6795	6797	6798	6801	6802	6804	6803	6799	6805	6806	6813	6814	6816	6815	6809	6810	6812	6811	6821	6825	6826	6828	6827	6829	6831	6823	6837	6841	6843	6845	6847	6839	801	802	803	804	805	806	807	808	809	810	6857	6858	6860	6859	6861	6862	6864	6863	6865	6866	6868	6867	6869	6870	6872	6871	815	816	817	818	6873	6877	6878	6880	6879	6876	6875	6881	6882	6884	6883	6885	6889	6890	6892	6891	6888	6887	6897	6901	6902	6904	6903	6900	6899	6909	6910	6912	6911	6906	6917	6918	6920	6919	6913	6914	6916	6915	6921	6925	6926	6928	6927	6929	6930	6932	6931	6923	6895	6937	6938	6940	6939	6934	6953	6954	6956	6955	6941	6942	6949	6950	6952	6951	6945	6946	6948	6947	6957	6958	6961	6962	6964	6963	6959	6969	6973	6974	6976	6975	6977	6978	6980	6979	6971	6981	6982	6984	6983	7001	7002	7004	7003	6989	6990	6992	6991	6993	6994	6996	6995	6988	6997	6998	7000	6999	7009	7010	7012	7011	7017	7018	7020	7019	7014	7016	7021	7022	7024	7023	7033	7034	7036	7035	7037	7038	7040	7039	7041	7042	7044	7043	7031	7025	7026	7028	7027	7045	7046	7057	7058	7061	7062	7064	7063	7059	7049	7050	7052	7053	7054	7056	7055	7069	7073	7074	7076	7075	7077	7078	7080	7079	7071	7085	7086	7088	7087	7082	7084	7083	7105	7106	7108	7107	7093	7094	7096	7095	7097	7098	7100	7099	7092	7101	7102	7104	7103	7113	7117	7118	7120	7119	7116	7115	7125	7126	7128	7127	7122	7133	7134	7136	7135	7129	7130	7132	7131	7137	7138	7140	7139	7111	7145	7146	7148	7149	7150	7152	7151	7153	7154	7157	7158	7160	7159	7155	7177	7178	7180	7179	7181	7182	7184	7183	7176	7175	7165	7166	7168	7167	7169	7170	7172	7171	7164	7163	7189	7193	7194	7196	7195	7201	7202	7204	7203	7197	7198	7200	7199	7209	7210	7212	7211	7213	7214	7216	7215	7208	7207	7188	7217	7218	7220	7219	7229	7230	7232	7231	7233	7234	7236	7235	7228	7227	7241	7242	7244	7243	7245	7246	7248	7247	7240	7239	7224	7223	7257	7258	7260	7259	7254	7265	7266	7268	7267	7261	7262	7264	7263	7269	7270	7277	7278	7280	7279	7273	7274	7276	7275	7285	7289	7290	7292	7291	7288	7287	7281	7282	7284	7283	7297	7298	7305	7306	7308	7307	7301	7302	7304	7303	7309	7313	7314	7316	7315	7321	7322	7324	7323	7317	7318	7320	7319	7333	7334	7336	7335	7329	7330	7332	7331	7326	7328	7327	7345	7346	7348	7347	7349	7350	7352	7351	7344	7343	7357	7358	7360	7359	7361	7362	7364	7363	7356	7355	7365	7366	7368	7367	7339	7377	7378	7380	7379	7381	7385	7386	7388	7387	7397	7398	7400	7399	7401	7402	7404	7403	841	842	843	844	845	7409	7410	7412	7411	7413	7414	7416	7415	7417	7418	7420	7419	7421	7422	7424	7423	7425	7426	7433	7434	7437	7438	7440	7439	7435	7429	7430	7432	7431	7445	7446	7448	7447	7449	7450	7452	7451	7473	7474	7476	7475	7477	7478	7480	7479	7472	7471	7453	7457	7458	7460	7459	7465	7466	7468	7467	7461	7462	7464	7463	7485	7486	7488	7487	7489	7490	7492	7491	7509	7510	7512	7511	7513	7514	7516	7515	7508	7507	7497	7498	7500	7499	7501	7502	7504	7503	7496	7495	7521	7522	7524	7523	7525	7526	7528	7527	7545	7546	7548	7547	7549	7550	7552	7551	7544	7543	7533	7534	7536	7535	7537	7538	7540	7539	7532	7531	7557	7558	7560	7559	7554	7577	7578	7585	7586	7588	7587	7581	7582	7584	7583	7565	7566	7568	7567	7569	7570	7572	7571	7573	7574	7576	7575	7563	7589	7590	7605	7606	7613	7614	7616	7615	7609	7610	7612	7611	7593	7594	7601	7602	7604	7603	7597	7598	7600	7599	7617	7618	7625	7626	7628	7627	7621	7622	7624	7623	7629	7630	7632	7633	7634	7636	7635	7637	7638	7640	7639	7641	7642	7644	7643	7645	7646	7649	7650	7652	7651	7647	7653	7657	7658	7660	7659	7673	7674	7676	7675	7677	7678	7680	7679	7672	7681	7682	7684	7683	7661	7662	7665	7666	7668	7667	7663	7689	7690	7693	7694	7696	7695	7691	7697	7698	7705	7706	7708	7707	7701	7702	7704	7703	7721	7722	7724	7723	7713	7714	7716	7715	7717	7718	7720	7719	7712	7711	7729	7733	7734	7736	7735	7741	7742	7744	7743	7737	7738	7740	7739	7749	7750	7752	7751	7753	7754	7756	7755	7761	7762	7764	7763	7757	7758	7760	7759	7769	7773	7774	7776	7775	7772	7771	7765	7766	7768	7767	7781	7782	7784	7783	7785	7786	7789	7790	7792	7791	7787	7805	7809	7810	7812	7811	7817	7818	7820	7819	7813	7814	7816	7815	7797	7798	7800	7799	7794	7796	7801	7802	7804	7803	7829	7830	7832	7831	7826	7828	7833	7834	7836	7835	7822	7824	7837	7838	7840	7839	7841	7845	7846	7848	7847	7844	7843	7857	7858	7860	7859	7861	7862	7864	7863	7856	7855	7869	7870	7872	7871	7873	7874	7876	7875	7868	7867	7852	7851	7881	7882	7884	7883	7878	7880	7879	7885	7886	7888	7887	7889	7890	7892	7891	7893	7894	7896	7895	872	7897	7898	7900	7899	7901	7902	7904	7903	7905	7909	7910	7912	7911	7913	7914	7916	7915	7907	7925	7926	7928	7927	7929	7930	7932	7931	7937	7938	7940	7939	7941	7942	7944	7943	881	882	883	884	7945	7946	7949	7950	7952	7951	7947	7957	7958	7960	7959	7961	7962	7964	7963	7981	7982	7984	7983	7985	7986	7988	7987	7980	7979	7969	7970	7972	7971	7973	7974	7976	7975	7968	7967	7993	7994	7996	7995	7997	7998	8000	7999	8017	8018	8020	8019	8021	8022	8024	8023	8016	8015	8005	8006	8008	8007	8009	8010	8012	8011	8004	8003	8029	8030	8032	8031	8033	8034	8036	8035	8053	8054	8056	8055	8057	8058	8060	8059	8052	8051	8041	8042	8044	8043	8045	8046	8048	8047	8040	8039	8065	8066	8068	8067	8069	8070	8073	8074	8076	8075	8071	8093	8094	8096	8095	8097	8098	8100	8099	8092	8091	8081	8082	8084	8083	8085	8086	8088	8087	8080	8079	8105	8109	8110	8112	8111	8117	8118	8120	8119	8113	8114	8116	8115	8125	8126	8128	8127	8129	8130	8132	8131	8124	8123	8104	8133	8134	8136	8135	8141	8142	8144	8143	8138	8140	8139	8145	8146	8148	8147	8149	8150	8152	8151	8157	8158	8160	8159	8161	8162	8164	8163	8156	8155	8169	8170	8172	8171	8173	8177	8178	8180	8179	8176	8175	8168	8167	8189	8190	8192	8191	8193	8194	8196	8195	8188	8187	8201	8202	8204	8203	8205	8206	8208	8207	8200	8199	8184	8183	8217	8218	8220	8219	8214	8225	8226	8228	8227	8221	8222	8224	8223	8229	8230	8237	8238	8240	8239	8233	8234	8236	8235	8245	8246	8248	8247	8241	8242	8244	8243	8253	8254	8261	8262	8264	8263	8257	8258	8260	8259	8265	8266	8268	8269	8270	8272	8271	8281	8282	8284	8283	8285	8286	8288	8287	8280	8279	8273	8274	8276	8275	8293	8294	8296	8295	8297	8298	8300	8299	8317	8318	8320	8319	8321	8322	8324	8323	8316	8315	8305	8306	8308	8307	8309	8310	8312	8311	8304	8303	8329	8330	8333	8334	8336	8335	8331	8337	8341	8342	8344	8343	8349	8350	8352	8351	8345	8346	8348	8347	8365	8366	8368	8367	8357	8358	8360	8359	8361	8362	8364	8363	8356	8355	8377	8378	8380	8379	8381	8382	8384	8383	8376	8375	8385	8386	8388	8387	8372	8371	8389	8390	8392	8391	8393	8397	8398	8400	8399	8396	8395	8409	8410	8412	8411	8413	8414	8416	8415	8417	8418	8420	8419	8407	8425	8426	8428	8427	8422	8424	8429	8430	8432	8431	8437	8438	8440	8439	8433	8434	8436	8435	8441	8442	8444	8443	906	907	908	909	910	911	912	913	914	8445	8449	8450	8452	8451	8453	8454	8456	8455	8447	8465	8466	8468	8467	8469	8471	8477	8479	8481	8483	921	922	923	924	8485	8486	8488	8487	8489	8490	8492	8491	8493	8494	8496	8495	8497	8498	8500	8499	8501	8502	8504	8503	8505	8506	8508	8507	931	932	933	934	935	936	8509	8510	8512	8511	8513	8514	8516	8515	8517	8518	8520	8519	8521	8522	8524	8523	941	942	943	8525	8526	8528	8527	945	946	947	948	949	950	951	952	953	954	8529	8533	8534	8536	8535	8537	8538	8540	8539	8531	8549	8551	8553	8555	8561	8563	8565	8567	961	962	963	964	965	966	967	968	969	970	971	972	973	974	975	976	977	978	979	980	981	982	983	984	985	986	987	988	989	990	991	992	993	994	8569	8573	8574	8576	8575	8577	8578	8580	8579	8571	8589	8591	8593	8595	8601	8603	8605	8607	1001	1002	1003	1004	1005	1006	1007	1008	1009	1010	1011	1012	1013	1014	1015	1016	1017	1018	1019	1020	1021	1022	1023	1024	1025	1026	1027	1028	1029	1030	1031	1032	1033	1034	8609	8613	8617	8618	8620	8619	8621	8622	8624	8623	8615	8625	8629	8630	8632	8631	8633	8634	8636	8635	8627	8611	8645	1041	1042	1043	1044	1045	1046	1047	1048	1049	1050	1051	1052	1053	1054	1055	1056	1057	1058	1059	1060	1061	1062	1063	1064	1065	1066	1067	1068	1069	1070	1071	1072	1073	8653	8654	8656	8655	8657	8661	8665	8666	8667	8669	8671	8663	8681	8682	8684	8683	8685	8687	8689	8690	8692	8691	8673	8674	8676	8675	1081	1082	1083	1084	1085	1086	1087	1088	1089	1090	1091	1092	1093	1094	1095	1096	1097	1098	1099	1100	1101	1102	1103	1104	1105	1106	1107	1108	1109	1110	1111	1112	1113	8705	8706	8708	8707	8713	8714	8716	8715	8721	8722	8723	8725	8727	8745	8729	8733	8734	8736	8735	8737	8738	8739	8731	1121	1122	1123	1124	1125	1126	1127	1128	1129	1130	1131	1132	1133	1134	1135	1136	1137	1138	1139	1140	1141	1142	1143	1144	1145	1146	1147	1148	1149	1150	1151	1152	1153	8753	8757	8758	8760	8759	8761	8765	8766	8768	8767	8769	8770	8772	8771	8763	8755	8781	8782	8784	8783	8785	8787	8789	8790	8792	8791	8801	8803	1161	1162	1163	1164	1165	1166	1167	1168	1169	1170	1171	1172	1173	1174	1175	1176	1177	1178	1179	1180	1181	1182	1183	1184	1185	1186	1187	1188	1189	1190	1191	1192	8809	8810	8812	8811	8817	8818	8820	8819	8825	8826	8828	8827	8829	8831	8833	8834	8836	8835	8853	8855	8837	8841	8842	8844	8843	8845	8846	8848	8847	8839	1201	1202	1203	1204	1205	1206	1207	1208	1209	1210	1211	1212	1213	1214	1215	1216	1217	1218	1219	1220	1221	1222	1223	1224	1225	1226	1227	1228	1229	1230	1231	1232	8865	8869	8870	8872	8871	8873	8877	8878	8880	8879	8881	8882	8884	8883	8875	8867	8893	8894	8896	8895	8897	8899	8901	8902	8904	8903	8913	8915	1241	1242	1243	1244	1245	1246	1247	1248	1249	1250	1251	1252	1253	1254	1255	1256	1257	1258	1259	1260	1261	1262	1263	1264	1265	1266	1267	1268	1269	1270	1271	8921	8922	8924	8923	8929	8930	8932	8931	8937	8938	8940	8939	8941	8943	8945	8946	8948	8947	8961	8963	8965	8949	8950	8953	8954	8956	8955	8951	1281	1282	1283	1284	1285	1286	1287	1288	1289	1290	1291	1292	1293	1294	1295	1296	1297	1298	1299	1300	1301	1302	1303	1304	1305	1306	1307	1308	1309	1310	1311	8977	8978	8981	8982	8984	8983	8979	8989	8993	8994	8995	8997	8999	8991	9009	9010	9012	9011	9013	9017	9018	9020	9019	1321	1322	1323	1324	1325	1326	1327	1328	1329	1330	1331	1332	1333	1334	1335	1336	1337	1338	1339	1340	1341	1342	1343	1344	1345	1346	1347	1348	1349	1350	1351	9029	9033	9034	9037	9038	9040	9039	9035	9041	9045	9046	9048	9047	9049	9050	9052	9051	9043	9031	9061	9063	9065	9067	1361	1362	1363	1364	1365	1366	1367	1368	1369	1370	1371	1372	1373	1374	1375	1376	1377	1378	1379	1380	1381	1382	1383	1384	1385	1386	1387	1388	1389	1390	9073	9074	9076	9075	9077	9081	9085	9086	9088	9087	9089	9091	9083	9097	9101	9103	9109	9111	9105	9106	9108	9107	9093	9094	9096	9095	1401	1402	1403	1404	1405	1406	1407	1408	1409	1410	1411	1412	1413	1414	1415	1416	1417	1418	1419	1420	1421	1422	1423	1424	1425	1426	1427	1428	1429	1430	9125	9126	9128	9127	9133	9134	9136	9135	9141	9142	9144	9143	9145	9146	9148	9147	9157	9158	9160	9159	9161	9162	9164	9163	9149	9150	9152	9151	1441	1442	1443	1444	1445	1446	1447	1448	1449	1450	1451	1452	1453	1454	1455	1456	1457	1458	1459	1460	1461	1462	1463	1464	1465	1466	1467	1468	1469	1470	9169	9170	9172	9171	9177	9178	9180	9179	9185	9186	9187	9189	9191	9201	9203	9205	9207	9193	9194	9196	9195	1481	1482	1483	1484	1485	1486	1487